<?xml version="1.0"?>
<VTKFile type="UnstructuredGrid" version="0.1" byte_order="LittleEndian" compressor="vtkZLibDataCompressor">
<UnstructuredGrid>
<Piece NumberOfPoints="13615" NumberOfCells="24896">
<Points>
<DataArray type="Float32" NumberOfComponents="3" format="ascii">
-1.000000 1.718750 8.437500
-1.000000 1.882920 8.437770
-1.000000 2.047090 8.438030
-1.000000 2.211260 8.438300
-1.000000 2.375430 8.438570
-1.000000 1.757810 8.515620
-1.000000 1.921980 8.515890
-1.000000 2.086150 8.516160
-1.000000 2.250320 8.516430
-1.000000 1.796870 8.593750
-1.000000 1.961040 8.594020
-1.000000 2.125210 8.594290
-1.000000 1.835940 8.671870
-1.000000 2.000110 8.672140
-1.000000 1.875000 8.750000
-0.851002 1.866510 8.396750
-0.851002 2.030680 8.397020
-0.851002 2.194860 8.397290
-0.851002 2.359030 8.397560
-0.851002 1.905580 8.474880
-0.851002 2.069750 8.475150
-0.851002 2.233920 8.475420
-0.851002 1.944640 8.553010
-0.851002 2.108810 8.553270
-0.851002 1.983700 8.631130
-0.702003 2.014280 8.356010
-0.702003 2.178450 8.356280
-0.702003 2.342620 8.356550
-0.702003 2.053340 8.434140
-0.702003 2.217510 8.434410
-0.702003 2.092410 8.512260
-0.553005 2.162050 8.315270
-0.553005 2.326220 8.315540
-0.553005 2.201110 8.393400
-0.404007 2.309810 8.274530
1.000000 3.000000 10.000000
0.819617 2.935660 9.839160
0.639235 2.871330 9.678310
0.458852 2.806990 9.517470
0.278469 2.742650 9.356630
1.000000 2.875000 10.000000
0.819617 2.810660 9.839160
0.639235 2.746330 9.678310
0.458852 2.681990 9.517470
1.000000 2.750000 10.000000
0.819617 2.685660 9.839160
0.639235 2.621330 9.678310
1.000000 2.625000 10.000000
0.819617 2.560660 9.839160
1.000000 2.500000 10.000000
0.749942 3.000000 10.000000
0.569559 2.935660 9.839160
0.389177 2.871330 9.678310
0.208794 2.806990 9.517470
0.749942 2.875000 10.000000
0.569559 2.810660 9.839160
0.389177 2.746330 9.678310
0.749942 2.750000 10.000000
0.569559 2.685660 9.839160
0.749942 2.625000 10.000000
0.499884 3.000000 10.000000
0.319501 2.935660 9.839160
0.139119 2.871330 9.678310
0.499884 2.875000 10.000000
0.319501 2.810660 9.839160
0.499884 2.750000 10.000000
0.249826 3.000000 10.000000
0.069443 2.935660 9.839160
0.249826 2.875000 10.000000
-0.000232 3.000000 10.000000
-1.000000 -1.499630 6.249090
-0.750180 -1.562090 6.405220
-0.500360 -1.624540 6.561360
-0.250541 -1.687000 6.717490
-0.000721 -1.749450 6.873630
-0.749783 -1.390310 6.467980
-0.499964 -1.452760 6.624120
-0.250144 -1.515220 6.780250
-0.000324 -1.577670 6.936390
-0.499567 -1.280980 6.686870
-0.249747 -1.343440 6.843010
0.000073 -1.405890 6.999150
-0.249350 -1.171660 6.905770
0.000469 -1.234110 7.061900
0.000866 -1.062330 7.124660
-1.000000 -1.342930 6.373230
-0.750180 -1.405390 6.529360
-0.500360 -1.467840 6.685500
-0.250541 -1.530300 6.841640
-0.749783 -1.233610 6.592120
-0.499964 -1.296060 6.748260
-0.250144 -1.358520 6.904390
-0.499567 -1.124280 6.811020
-0.249747 -1.186730 6.967150
-0.249350 -1.014950 7.029910
-1.000000 -1.186230 6.497370
-0.750180 -1.248680 6.653500
-0.500360 -1.311140 6.809640
-0.749783 -1.076900 6.716260
-0.499964 -1.139360 6.872400
-0.499567 -0.967578 6.935160
-1.000000 -1.029530 6.621510
-0.750180 -1.091980 6.777650
-0.749783 -0.920202 6.840400
-1.000000 -0.872826 6.745650
0.000000 -1.000000 5.000000
-0.000040 -0.897415 5.294830
-0.000081 -0.794829 5.589660
-0.000121 -0.692244 5.884490
-0.000162 -0.589658 6.179320
-0.011890 -1.093680 5.234200
-0.011930 -0.991094 5.529030
-0.011971 -0.888509 5.823860
-0.012011 -0.785924 6.118690
-0.023780 -1.187360 5.468400
-0.023820 -1.084770 5.763230
-0.023860 -0.982189 6.058060
-0.035670 -1.281040 5.702600
-0.035710 -1.178450 5.997430
-0.047559 -1.374720 5.936800
0.250000 -0.859209 5.218420
0.249960 -0.756623 5.513250
0.249919 -0.654038 5.808080
0.249879 -0.551452 6.102900
0.238110 -0.952889 5.452620
0.238070 -0.850303 5.747450
0.238029 -0.747718 6.042280
0.226220 -1.046570 5.686820
0.226180 -0.943983 5.981650
0.214330 -1.140250 5.921020
0.500000 -0.718418 5.436840
0.499960 -0.615832 5.731660
0.499919 -0.513247 6.026490
0.488110 -0.812098 5.671030
0.488070 -0.709512 5.965860
0.476220 -0.905777 5.905230
0.750000 -0.577626 5.655250
0.749960 -0.475041 5.950080
0.738110 -0.671306 5.889450
1.000000 -0.436835 5.873670
-1.000000 -2.814300 9.535760
-0.819573 -2.796340 9.490860
-0.639147 -2.778390 9.445960
-0.458720 -2.760430 9.401060
-0.278293 -2.742470 9.356160
-1.000000 -2.735730 9.651820
-0.819573 -2.717770 9.606920
-0.639147 -2.699810 9.562020
-0.458720 -2.681850 9.517120
-1.000000 -2.657150 9.767880
-0.819573 -2.639190 9.722980
-0.639147 -2.621230 9.678080
-1.000000 -2.578580 9.883940
-0.819573 -2.560620 9.839040
-1.000000 -2.500000 10.000000
-1.000000 -2.860730 9.651820
-0.819573 -2.842770 9.606920
-0.639147 -2.824810 9.562020
-0.458720 -2.806850 9.517120
-1.000000 -2.782150 9.767880
-0.819573 -2.764190 9.722980
-0.639147 -2.746230 9.678080
-1.000000 -2.703580 9.883940
-0.819573 -2.685620 9.839040
-1.000000 -2.625000 10.000000
-1.000000 -2.907150 9.767880
-0.819573 -2.889190 9.722980
-0.639147 -2.871230 9.678080
-1.000000 -2.828580 9.883940
-0.819573 -2.810620 9.839040
-1.000000 -2.750000 10.000000
-1.000000 -2.953580 9.883940
-0.819573 -2.935620 9.839040
-1.000000 -2.875000 10.000000
-1.000000 -3.000000 10.000000
1.000000 -1.500430 6.251080
0.749960 -1.272740 6.233140
0.499919 -1.045050 6.215200
0.249879 -0.817352 6.197260
-0.000162 -0.589658 6.179320
0.738110 -1.469000 6.172510
0.488070 -1.241310 6.154570
0.238029 -1.013620 6.136630
-0.012011 -0.785924 6.118690
0.476220 -1.437580 6.093940
0.226180 -1.209880 6.076000
-0.023860 -0.982189 6.058060
0.214330 -1.406150 6.015370
-0.035710 -1.178450 5.997430
-0.047559 -1.374720 5.936800
1.000000 -1.343740 6.375150
0.749960 -1.116050 6.357200
0.499919 -0.888355 6.339260
0.249879 -0.660661 6.321320
0.738110 -1.312310 6.296580
0.488070 -1.084620 6.278630
0.238029 -0.856927 6.260690
0.476220 -1.280890 6.218000
0.226180 -1.053190 6.200060
0.214330 -1.249460 6.139430
1.000000 -1.187050 6.499210
0.749960 -0.959358 6.481270
0.499919 -0.731664 6.463330
0.738110 -1.155620 6.420640
0.488070 -0.927930 6.402700
0.476220 -1.124200 6.342070
1.000000 -1.030360 6.623280
0.749960 -0.802667 6.605330
0.738110 -0.998933 6.544710
1.000000 -0.873670 6.747340
1.000000 -2.000860 7.502160
0.844283 -1.986250 7.465630
0.688565 -1.971640 7.429100
0.532848 -1.957030 7.392570
0.377131 -1.942420 7.356040
0.834805 -1.832500 7.540330
0.679088 -1.817890 7.503800
0.523371 -1.803280 7.467270
0.367653 -1.788670 7.430740
0.669610 -1.664140 7.578490
0.513893 -1.649530 7.541970
0.358176 -1.634920 7.505440
0.504416 -1.495780 7.616660
0.348698 -1.481170 7.580130
0.339221 -1.327410 7.654830
1.000000 -1.813400 7.502120
0.844283 -1.798780 7.465590
0.688565 -1.784170 7.429060
0.532848 -1.769560 7.392530
0.834805 -1.645030 7.540280
0.679088 -1.630420 7.503750
0.523371 -1.615810 7.467230
0.669610 -1.476670 7.578450
0.513893 -1.462060 7.541920
0.504416 -1.308310 7.616620
1.000000 -1.625930 7.502070
0.844283 -1.611320 7.465540
0.688565 -1.596700 7.429010
0.834805 -1.457570 7.540240
0.679088 -1.442950 7.503710
0.669610 -1.289200 7.578410
1.000000 -1.438460 7.502030
0.844283 -1.423850 7.465500
0.834805 -1.270100 7.540190
1.000000 -1.250990 7.501980
1.000000 0.110021 4.063270
0.843729 0.332516 4.169310
0.687458 0.555011 4.275360
0.531187 0.777505 4.381410
0.374916 1.000000 4.487460
1.000000 0.082516 4.297450
0.843729 0.305011 4.403500
0.687458 0.527505 4.509540
0.531187 0.750000 4.615590
1.000000 0.055011 4.531630
0.843729 0.277505 4.637680
0.687458 0.500000 4.743730
1.000000 0.027505 4.765820
0.843729 0.250000 4.871860
1.000000 0.000000 5.000000
1.000000 0.332516 4.141320
0.843729 0.555011 4.247370
0.687458 0.777505 4.353420
0.531187 1.000000 4.459470
1.000000 0.305011 4.375510
0.843729 0.527505 4.481560
0.687458 0.750000 4.587600
1.000000 0.277505 4.609690
0.843729 0.500000 4.715740
1.000000 0.250000 4.843870
1.000000 0.555011 4.219380
0.843729 0.777505 4.325430
0.687458 1.000000 4.431480
1.000000 0.527505 4.453570
0.843729 0.750000 4.559610
1.000000 0.500000 4.687750
1.000000 0.777505 4.297440
0.843729 1.000000 4.403490
1.000000 0.750000 4.531620
1.000000 1.000000 4.375500
-0.022517 -0.022107 3.602030
0.233112 -0.016502 3.483150
0.488741 -0.010898 3.364260
0.744371 -0.005293 3.245380
1.000000 0.000311 3.126500
0.233112 0.233420 3.483150
0.488741 0.239024 3.364260
0.744371 0.244629 3.245380
1.000000 0.250234 3.126500
0.488741 0.488947 3.364260
0.744371 0.494551 3.245380
1.000000 0.500156 3.126500
0.744371 0.744473 3.245380
1.000000 0.750078 3.126500
1.000000 1.000000 3.126500
0.233112 0.233420 3.639270
0.488741 0.239024 3.520390
0.744371 0.244629 3.401510
1.000000 0.250234 3.282620
0.488741 0.488947 3.520390
0.744371 0.494551 3.401510
1.000000 0.500156 3.282620
0.744371 0.744473 3.401510
1.000000 0.750078 3.282620
1.000000 1.000000 3.282620
0.488741 0.488947 3.676510
0.744371 0.494551 3.557630
1.000000 0.500156 3.438750
0.744371 0.744473 3.557630
1.000000 0.750078 3.438750
1.000000 1.000000 3.438750
0.744371 0.744473 3.713760
1.000000 0.750078 3.594870
1.000000 1.000000 3.594870
1.000000 1.000000 3.751000
-1.000000 -1.000000 5.000000
-0.761890 -1.093680 5.234200
-0.523780 -1.187360 5.468400
-0.285670 -1.281040 5.702600
-0.047559 -1.374720 5.936800
-0.750000 -1.000000 5.000000
-0.511890 -1.093680 5.234200
-0.273780 -1.187360 5.468400
-0.035670 -1.281040 5.702600
-0.500000 -1.000000 5.000000
-0.261890 -1.093680 5.234200
-0.023780 -1.187360 5.468400
-0.250000 -1.000000 5.000000
-0.011890 -1.093680 5.234200
0.000000 -1.000000 5.000000
-1.000000 -0.859103 5.218210
-0.761890 -0.952783 5.452410
-0.523780 -1.046460 5.686610
-0.285670 -1.140140 5.920810
-0.750000 -0.859103 5.218210
-0.511890 -0.952783 5.452410
-0.273780 -1.046460 5.686610
-0.500000 -0.859103 5.218210
-0.261890 -0.952783 5.452410
-0.250000 -0.859103 5.218210
-1.000000 -0.718206 5.436410
-0.761890 -0.811886 5.670610
-0.523780 -0.905566 5.904810
-0.750000 -0.718206 5.436410
-0.511890 -0.811886 5.670610
[...]
<PointData>
<DataArray type="Float32" Name="V1" format="ascii">
0.000000
0.000000
0.000000
0.000000
0.000000
0.000000
0.000000
0.000000
0.000000
0.000000
0.000000
0.000000
0.000000
0.000000
0.000000
-0.000236
-0.000157
-0.000079
0.000000
-0.000177
-0.000099
-0.000020
-0.000119
-0.000040
-0.000061
-0.000315
-0.000157
0.000000
-0.000198
-0.000040
-0.000081
-0.000236
0.000000
-0.000061
0.000000
0.000000
0.000000
0.000000
0.000000
0.000000
0.000000
-0.000185
-0.000370
-0.000556
0.000000
-0.000370
-0.000741
0.000000
-0.000556
0.000000
0.000000
0.000000
0.000000
0.000000
0.000000
-0.000185
-0.000370
0.000000
-0.000370
0.000000
0.000000
0.000000
0.000000
0.000000
-0.000185
0.000000
0.000000
0.000000
0.000000
0.000000
0.000000
0.000000
0.000000
0.000000
0.000000
-0.000203
-0.000149
-0.000096
-0.000042
-0.000270
-0.000163
-0.000057
-0.000203
-0.000042
0.000000
0.000000
-0.000070
-0.000140
-0.000210
-0.000135
-0.000152
-0.000168
-0.000135
-0.000098
0.000000
0.000000
-0.000140
-0.000280
-0.000068
-0.000154
0.000000
0.000000
-0.000210
0.000000
0.000000
0.000000
-0.000235
-0.000314
-0.000235
0.000000
0.000000
-0.000195
-0.000233
-0.000114
0.000000
-0.000154
-0.000152
0.000000
-0.000114
0.000000
-0.000116
-0.000234
-0.000195
0.000000
-0.000120
-0.000198
-0.000119
-0.000125
-0.000162
-0.000129
-0.000154
-0.000155
0.000000
-0.000163
-0.000124
-0.000172
-0.000116
0.000000
-0.000129
0.000000
0.000000
0.000000
0.000000
0.000000
0.000000
0.000000
0.000163
0.000325
0.000488
0.000000
0.000325
0.000651
0.000000
0.000488
0.000000
0.000000
0.000000
0.000000
0.000000
0.000000
0.000163
0.000325
0.000000
0.000325
0.000000
0.000000
0.000000
0.000000
0.000000
0.000163
0.000000
0.000000
0.000000
0.000000
0.000000
0.000000
0.000272
0.000362
0.000272
0.000000
0.000000
0.000143
0.000105
-0.000114
0.000000
0.000015
-0.000152
0.000000
-0.000114
0.000000
0.000000
0.000181
0.000181
0.000000
0.000124
0.000177
0.000049
0.000249
0.000173
0.000373
0.000000
0.000091
0.000000
0.000249
0.000211
0.000498
0.000000
0.000000
0.000373
0.000000
0.000000
0.000000
0.000000
0.000000
0.000000
0.000124
0.000065
0.000005
-0.000055
0.000166
0.000047
-0.000073
0.000124
-0.000055
0.000000
0.000000
-0.000095
-0.000191
-0.000286
0.000083
-0.000072
-0.000227
0.000083
-0.000132
0.000000
0.000000
-0.000191
-0.000382
0.000041
-0.000209
0.000000
0.000000
-0.000286
0.000000
0.000000
0.000000
0.000015
0.000019
0.000015
0.000000
0.000000
-0.000000
-0.000010
-0.000029
0.000000
-0.000015
-0.000039
0.000000
-0.000029
0.000000
0.000000
0.000010
0.000010
0.000000
0.000000
-0.000005
-0.000019
0.000000
-0.000019
0.000000
0.000000
0.000005
0.000000
0.000000
-0.000010
0.000000
0.000000
0.000000
0.000000
0.000000
0.000027
-0.000041
-0.000068
-0.000054
0.000000
0.000013
-0.000033
-0.000037
0.000000
0.000003
-0.000019
0.000000
-0.000001
0.000000
0.000000
-0.000127
-0.000125
-0.000083
0.000000
-0.000090
-0.000065
0.000000
-0.000048
0.000000
0.000000
-0.000183
-0.000112
0.000000
-0.000094
0.000000
0.000000
-0.000140
0.000000
0.000000
0.000000
0.000000
0.000000
0.000000
0.000000
0.000000
0.000000
0.000000
0.000000
0.000000
0.000000
0.000000
0.000000
0.000000
0.000000
0.000000
0.000000
-0.000033
-0.000066
-0.000098
-0.000038
-0.000071
-0.000103
-0.000076
-0.000108
-0.000114
0.000000
-0.000066
-0.000131
-0.000076
-0.000141
-0.000151
0.000000
-0.000098
-0.000114
0.000000
0.000000
0.001365
0.001819
0.001365
0.000000
0.000000
0.001090
0.001271
0.000542
0.000000
0.000816
0.000722
0.000000
0.000542
0.000000
0.000000
0.001040
0.001170
0.000391
0.000000
0.000766
0.000622
0.000000
0.000491
0.000000
0.000000
0.000716
0.000521
0.000000
0.000441
0.000000
0.000000
0.000391
0.000000
0.000000
0.000000
0.000000
0.000000
0.000000
0.000000
0.000093
0.000048
0.000004
-0.000040
0.000124
0.000035
-0.000054
0.000093
-0.000040
0.000000
0.000000
0.000000
0.000000
0.000000
-0.000123
-0.000167
-0.000212
-0.000307
-0.000396
-0.000554
0.000000
0.000000
0.000000
-0.000338
-0.000383
-0.000739
0.000000
0.000000
-0.000554
0.000000
0.000000
-0.000263
-0.000351
-0.000263
0.000000
0.000000
-0.000175
-0.000175
0.000000
0.000000
-0.000088
0.000000
0.000000
0.000000
0.000000
0.000000
-0.000280
-0.000386
-0.000315
0.000000
-0.000193
-0.000210
0.000000
-0.000105
0.000000
0.000000
-0.000298
-0.000420
0.000000
-0.000210
0.000000
0.000000
-0.000315
0.000000
0.000000
0.000000
0.000000
0.000000
0.000000
0.000000
0.000000
0.000227
0.000453
0.000680
0.000000
0.000453
0.000907
0.000000
0.000680
0.000000
0.000000
0.000000
0.000000
0.000000
0.000000
0.000227
0.000453
0.000000
0.000453
0.000000
0.000000
0.000000
0.000000
0.000000
0.000227
0.000000
0.000000
0.000000
0.000000
0.000000
0.000009
0.000029
0.000035
0.000025
0.000000
0.000032
0.000036
0.000026
0.000000
0.000038
0.000027
0.000000
0.000027
0.000000
0.000000
0.000036
0.000039
0.000027
0.000000
0.000041
0.000028
0.000000
0.000029
0.000000
0.000000
0.000044
0.000029
0.000000
0.000030
0.000000
0.000000
0.000032
0.000000
0.000000
0.000000
0.000000
0.000000
0.000000
0.000000
0.000000
-0.000061
-0.000158
-0.000255
-0.000351
-0.000081
-0.000275
-0.000469
-0.000061
-0.000351
0.000000
0.000000
-0.000105
-0.000210
-0.000315
-0.000040
-0.000242
-0.000444
-0.000040
-0.000339
0.000000
0.000000
-0.000210
-0.000420
-0.000020
-0.000327
0.000000
0.000000
-0.000315
0.000000
0.000000
0.000000
0.000000
0.000000
0.000000
0.000000
0.000111
0.000090
0.000069
0.000048
0.000141
0.000098
0.000056
0.000089
0.000025
-0.000045
0.000014
0.000012
0.000010
0.000008
0.000077
0.000054
0.000030
0.000059
0.000014
-0.000041
0.000023
0.000019
0.000015
0.000038
0.000013
-0.000028
0.000027
0.000021
-0.000005
0.000027
0.000000
-0.000050
-0.000066
-0.000050
0.000000
0.000000
-0.000033
-0.000033
0.000000
0.000000
-0.000017
0.000000
0.000000
0.000000
0.000000
-0.000059
-0.000072
-0.000053
0.000000
-0.000039
-0.000036
0.000000
-0.000020
0.000000
0.000000
-0.000078
-0.000056
0.000000
-0.000039
0.000000
0.000000
-0.000059
0.000000
0.000000
0.000000
0.000000
0.000006
0.000002
-0.000011
-0.000035
0.000000
0.000006
0.000002
-0.000012
0.000000
0.000006
0.000002
0.000000
0.000006
0.000000
0.000000
0.000008
0.000006
-0.000005
0.000000
0.000008
0.000006
0.000000
0.000008
0.000000
0.000000
0.000010
0.000011
0.000000
0.000010
0.000000
0.000000
0.000012
0.000000
0.000000
0.000000
0.000063
0.000084
0.000063
0.000000
0.000000
0.000042
0.000042
0.000000
0.000000
0.000021
0.000000
0.000000
0.000000
0.000000
0.000000
0.000042
0.000042
0.000000
0.000000
0.000021
0.000000
0.000000
0.000000
0.000000
0.000000
0.000021
0.000000
0.000000
0.000000
0.000000
0.000000
0.000000
0.000000
0.000000
0.000000
0.000000
0.000000
0.000000
0.000000
-0.000014
-0.000009
-0.000005
0.000000
-0.000018
-0.000009
0.000000
-0.000014
0.000000
0.000000
0.000000
0.000000
0.000000
0.000000
-0.000009
-0.000005
0.000000
-0.000009
0.000000
0.000000
0.000000
0.000000
0.000000
-0.000005
0.000000
0.000000
0.000000
0.000000
0.000000
0.000000
0.000000
-0.000324
-0.000432
-0.000324
0.000000
0.000000
-0.000216
-0.000216
0.000000
0.000000
-0.000108
0.000000
0.000000
0.000000
0.000000
0.000000
-0.000216
-0.000216
0.000000
0.000000
-0.000108
0.000000
0.000000
0.000000
0.000000
0.000000
-0.000108
0.000000
0.000000
0.000000
0.000000
0.000000
0.000000
0.000000
0.000000
0.000000
-0.000010
-0.000019
-0.000027
-0.000035
0.000000
-0.000005
-0.000008
-0.000011
0.000000
0.000001
0.000002
0.000000
0.000006
0.000000
0.000000
-0.000002
-0.000004
-0.000005
0.000000
0.000003
0.000006
0.000000
0.000008
0.000000
0.000000
0.000005
0.000011
0.000000
0.000010
0.000000
0.000000
0.000012
0.000000
0.000000
0.000000
0.000000
0.000000
0.000000
0.000000
0.000373
0.000211
0.000049
-0.000114
0.000498
0.000173
-0.000152
0.000373
-0.000114
0.000000
0.000000
0.000000
0.000000
0.000000
0.000266
0.000104
-0.000058
0.000284
-0.000041
0.000052
0.000000
0.000000
0.000000
0.000159
-0.000003
0.000069
0.000000
0.000000
0.000052
0.000000
0.000027
0.000029
0.000025
0.000015
0.000000
0.000021
-0.000018
-0.000063
-0.000113
0.000015
-0.000065
-0.000150
0.000008
-0.000113
0.000000
-0.000005
-0.000008
-0.000017
-0.000031
0.000013
-0.000031
-0.000080
0.000030
-0.000054
0.000048
-0.000028
-0.000036
-0.000049
0.000014
-0.000034
0.000056
-0.000041
-0.000054
0.000025
-0.000045
0.000000
-0.000084
-0.000108
-0.000070
0.000027
0.000000
-0.000069
-0.000077
-0.000024
0.000000
-0.000053
-0.000045
0.000000
-0.000037
0.000000
0.000000
-0.000054
-0.000048
0.000020
0.000000
-0.000039
-0.000017
0.000000
-0.000023
0.000000
0.000000
-0.000024
0.000012
0.000000
-0.000009
0.000000
0.000000
0.000006
0.000000
0.000000
0.000000
0.000680
0.000907
0.000680
0.000000
0.000000
0.000397
0.000341
-0.000169
0.000000
0.000114
-0.000225
0.000000
-0.000169
0.000000
0.000000
0.000453
0.000453
0.000000
-0.000094
0.000077
-0.000206
-0.000188
-0.000300
-0.000282
0.000000
0.000227
0.000000
-0.000188
-0.000244
-0.000376
0.000000
0.000000
-0.000282
0.000000
0.000000
0.000000
0.000000
0.000000
0.000000
-0.000121
-0.000081
-0.000040
0.000000
-0.000162
-0.000081
0.000000
-0.000121
0.000000
0.000000
0.000000
0.000000
0.000000
0.000000
-0.000081
-0.000040
0.000000
-0.000081
0.000000
0.000000
0.000000
0.000000
0.000000
-0.000040
0.000000
0.000000
0.000000
0.000000
0.000000
0.000000
0.000000
-0.000995
-0.001326
-0.000995
0.000000
0.000000
-0.000852
-0.001041
-0.000567
0.000000
-0.000710
-0.000756
0.000000
-0.000567
0.000000
0.000000
-0.000608
-0.000553
0.000165
0.000000
-0.000466
-0.000268
0.000000
-0.000323
0.000000
0.000000
-0.000222
0.000220
0.000000
-0.000079
0.000000
0.000000
0.000165
0.000000
0.000000
0.000000
0.000000
0.000000
0.000000
0.000000
-0.000102
-0.000165
-0.000227
-0.000290
-0.000136
-0.000261
-0.000386
-0.000102
-0.000290
0.000000
0.000000
0.000000
0.000000
0.000000
-0.000047
-0.000110
-0.000172
-0.000026
-0.000151
0.000063
0.000000
0.000000
0.000000
0.000008
-0.000054
0.000084
0.000000
0.000000
0.000063
0.000000
0.000000
-0.000010
-0.000013
-0.000010
0.000000
0.000000
-0.000009
-0.000012
-0.000008
0.000000
-0.000008
-0.000011
0.000000
-0.000008
0.000000
-0.000002
-0.000014
-0.000019
-0.000018
0.000007
-0.000004
-0.000009
0.000016
0.000005
0.000025
-0.000001
-0.000015
-0.000023
0.000017
0.000003
0.000035
0.000002
-0.000014
0.000029
0.000009
0.000000
0.000000
0.000000
0.000000
0.000000
-0.000236
-0.000157
-0.000079
0.000000
-0.000315
-0.000157
0.000000
-0.000236
0.000000
0.000000
0.000000
0.000000
0.000000
0.000000
-0.000266
-0.000188
-0.000109
-0.000375
-0.000218
-0.000327
0.000000
0.000000
0.000000
-0.000296
-0.000218
-0.000436
0.000000
0.000000
-0.000327
0.000000
0.000000
0.000000
0.000000
0.000000
0.000000
-0.000116
-0.000109
-0.000102
-0.000096
-0.000154
-0.000141
-0.000128
-0.000116
-0.000096
0.000000
0.000000
0.000000
0.000000
0.000000
-0.000048
-0.000041
-0.000034
-0.000018
-0.000005
0.000089
0.000000
0.000000
0.000000
0.000021
0.000027
0.000118
0.000000
0.000000
0.000089
0.000000
0.000000
-0.000235
-0.000314
-0.000235
0.000000
-0.000116
-0.000234
-0.000195
0.000000
-0.000154
-0.000155
0.000000
-0.000116
0.000000
0.000000
0.000089
-0.000098
-0.000127
0.000000
-0.000018
-0.000087
0.000000
-0.000048
0.000000
0.000000
0.000118
-0.000019
0.000000
0.000021
0.000000
0.000000
0.000089
0.000000
0.000000
0.000000
0.000000
0.000001
0.000001
0.000001
0.000000
-0.000016
-0.000012
-0.000010
-0.000007
-0.000021
-0.000015
-0.000010
-0.000016
-0.000007
0.000000
-0.000014
-0.000009
-0.000004
0.000000
-0.000020
-0.000012
-0.000005
-0.000015
-0.000005
0.000000
-0.000018
-0.000009
0.000000
-0.000014
-0.000002
0.000000
-0.000014
0.000000
0.000000
0.000000
0.000000
0.000048
0.000066
0.000052
0.000009
0.000000
0.000037
0.000042
0.000018
0.000000
0.000025
0.000019
0.000000
0.000013
0.000000
0.000000
0.000031
0.000032
0.000002
0.000000
0.000020
0.000009
0.000000
0.000008
0.000000
0.000000
0.000014
-0.000002
0.000000
0.000003
0.000000
0.000000
-0.000002
0.000000
0.000000
0.000000
-0.000260
-0.000346
-0.000260
0.000000
0.000000
-0.000204
-0.000234
-0.000092
0.000000
-0.000148
-0.000122
0.000000
-0.000092
0.000000
0.000000
-0.000173
-0.000173
0.000000
-0.000081
-0.000198
-0.000142
-0.000163
-0.000224
-0.000244
0.000000
-0.000087
0.000000
-0.000163
-0.000193
-0.000325
0.000000
0.000000
-0.000244
0.000000
0.000000
0.000272
0.000362
0.000272
0.000000
0.000000
0.000181
0.000181
0.000000
0.000000
0.000091
0.000000
0.000000
0.000000
0.000000
0.000000
0.000181
0.000181
0.000000
0.000000
0.000091
0.000000
0.000000
0.000000
0.000000
0.000000
0.000091
0.000000
0.000000
0.000000
0.000000
0.000000
0.000000
0.000000
0.000000
0.000000
0.000000
0.000000
0.000000
0.000000
0.000000
-0.000003
-0.000005
-0.000008
0.000000
-0.000005
-0.000011
0.000000
-0.000008
0.000000
0.000000
0.000000
0.000000
0.000000
0.000000
-0.000003
-0.000005
0.000000
-0.000005
0.000000
0.000000
0.000000
0.000000
0.000000
-0.000003
0.000000
0.000000
0.000000
0.000000
0.000000
0.000000
0.000000
0.000000
0.000000
0.000000
-0.000017
-0.000005
0.000008
0.000021
-0.000019
0.000007
0.000032
-0.000004
0.000034
0.000027
0.000000
0.000000
0.000000
0.000000
0.000015
0.000028
0.000040
0.000046
0.000071
0.000093
0.000000
0.000000
0.000000
0.000047
0.000060
0.000110
0.000000
0.000000
0.000079
0.000000
0.000000
0.000000
0.000000
0.000000
0.000000
0.000000
0.000170
0.000339
0.000509
0.000000
0.000339
0.000678
0.000000
0.000509
0.000000
0.000000
0.000000
0.000000
0.000000
0.000000
0.000170
0.000339
0.000000
0.000339
0.000000
0.000000
0.000000
0.000000
0.000000
0.000170
0.000000
0.000000
0.000000
0.000000
0.000000
0.000000
0.000000
0.000000
0.000000
0.000000
0.000000
0.000455
0.000910
0.001365
0.000000
0.000910
0.001819
0.000000
0.001365
0.000000
0.000000
-0.000185
-0.000370
-0.000556
0.000000
0.000270
0.000539
0.000000
0.000725
0.000000
0.000000
-0.000370
-0.000741
0.000000
0.000084
0.000000
0.000000
-0.000556
0.000000
0.000000
0.000000
-0.000263
-0.000351
-0.000263
0.000000
0.000000
-0.000306
-0.000436
-0.000391
0.000000
-0.000349
-0.000522
0.000000
-0.000391
0.000000
0.000000
-0.000175
-0.000175
0.000000
0.000000
-0.000218
-0.000261
0.000000
-0.000261
0.000000
0.000000
-0.000088
0.000000
0.000000
-0.000130
0.000000
0.000000
0.000000
0.000000
0.000000
0.000000
0.000000
0.000000
0.000000
0.000000
0.000000
-0.000027
-0.000054
-0.000081
0.000000
-0.000054
-0.000108
0.000000
-0.000081
0.000000
0.000000
0.000000
0.000000
0.000000
-0.000032
-0.000059
-0.000086
-0.000064
-0.000118
-0.000096
0.000000
0.000000
0.000000
-0.000064
-0.000091
-0.000128
0.000000
0.000000
-0.000096
0.000000
0.000000
0.000000
0.000000
0.000000
0.000000
0.000000
0.000000
0.000000
0.000000
0.000000
0.000000
0.000000
0.000000
0.000000
0.000000
-0.000020
0.000105
0.000229
0.000354
0.000042
0.000167
0.000292
0.000105
0.000229
0.000167
-0.000027
0.000223
0.000472
0.000098
0.000347
0.000223
-0.000020
0.000354
0.000167
0.000000
0.000000
0.000000
0.000000
0.000000
0.000000
0.000000
0.000004
0.000008
0.000012
0.000000
0.000008
0.000016
0.000000
0.000012
0.000000
0.000000
0.000000
0.000000
0.000000
0.000001
0.000005
0.000009
0.000002
0.000011
0.000004
0.000000
0.000000
0.000000
0.000002
0.000007
0.000005
0.000000
0.000000
0.000004
0.000000
0.000000
-0.000282
-0.000376
-0.000282
0.000000
0.000000
-0.000188
-0.000188
0.000000
0.000000
-0.000094
0.000000
0.000000
0.000000
0.000000
0.000000
-0.000188
-0.000188
0.000000
0.000000
-0.000094
0.000000
0.000000
0.000000
0.000000
0.000000
-0.000094
0.000000
0.000000
0.000000
0.000000
0.000000
0.000000
0.000000
0.000000
0.000000
0.000124
0.000166
0.000124
0.000000
0.000000
0.000029
-0.000026
-0.000163
0.000000
-0.000067
-0.000218
0.000000
-0.000163
0.000000
0.000000
0.000096
0.000108
0.000038
0.000000
-0.000000
-0.000084
0.000000
-0.000096
0.000000
0.000000
0.000067
0.000051
0.000000
-0.000029
0.000000
0.000000
0.000038
0.000000
0.000000
0.000000
0.000005
0.000010
0.000014
0.000017
0.000000
0.000008
0.000014
0.000021
0.000000
0.000010
0.000019
0.000000
0.000012
0.000000
0.000000
0.000007
0.000014
0.000020
0.000000
0.000009
0.000018
0.000000
0.000012
0.000000
0.000000
0.000009
0.000017
0.000000
0.000011
0.000000
0.000000
0.000011
0.000000
0.000000
0.000017
0.000011
0.000006
0.000002
0.000000
0.000021
0.000012
0.000006
0.000000
0.000019
0.000009
0.000000
0.000012
0.000000
0.000000
0.000020
0.000012
0.000005
0.000000
0.000018
0.000008
0.000000
0.000012
0.000000
0.000000
0.000017
0.000008
0.000000
0.000011
0.000000
0.000000
0.000011
0.000000
0.000000
0.000000
0.000000
0.000000
0.000000
0.000000
0.000000
0.000005
0.000004
0.000003
0.000002
0.000010
0.000008
0.000006
0.000014
0.000011
0.000017
0.000000
0.000000
0.000000
0.000000
0.000007
0.000006
0.000005
0.000014
0.000012
0.000020
0.000000
0.000000
0.000000
0.000009
0.000008
0.000017
0.000000
0.000000
0.000011
0.000000
0.000000
0.000000
0.000000
0.000000
0.000000
0.000000
0.000000
0.000000
0.000000
0.000000
0.000000
0.000000
0.000000
0.000000
0.000000
0.000005
0.000004
0.000003
0.000002
0.000008
0.000007
0.000006
0.000010
0.000009
0.000012
0.000010
0.000008
0.000006
0.000014
0.000012
0.000019
0.000014
0.000011
0.000021
0.000017
0.000000
0.000000
0.000000
0.000000
0.000000
0.000534
0.000395
0.000256
0.000118
0.000712
0.000434
0.000157
0.000534
0.000118
0.000000
0.000000
0.000177
0.000354
0.000532
0.000356
0.000394
0.000433
0.000356
0.000256
0.000000
0.000000
0.000354
0.000709
0.000178
0.000394
0.000000
0.000000
0.000532
0.000000
0.000000
0.000000
-0.000047
-0.000060
-0.000039
0.000017
0.000091
0.000034
0.000011
0.000022
0.000122
0.000054
0.000021
0.000091
0.000013
0.000000
0.000000
-0.000031
-0.000028
0.000009
0.000061
0.000020
0.000013
0.000062
0.000010
0.000002
0.000000
-0.000015
0.000004
0.000032
0.000006
0.000002
0.000000
0.000001
0.000002
0.000000
0.000000
0.000000
0.000000
0.000000
0.000000
0.000053
-0.000154
-0.000360
-0.000567
0.000070
-0.000343
-0.000756
0.000053
-0.000567
0.000000
0.000000
0.000000
0.000000
0.000000
-0.000139
-0.000346
-0.000553
-0.000314
-0.000727
-0.000524
0.000000
0.000000
0.000000
-0.000332
-0.000538
-0.000699
0.000000
0.000000
-0.000524
0.000000
0.000000
0.000000
0.000000
0.000000
0.000000
0.000509
0.000339
0.000170
0.000000
0.000678
0.000339
0.000000
0.000509
0.000000
0.000000
0.000000
0.000000
0.000000
0.000000
0.000339
0.000170
0.000000
0.000339
0.000000
0.000000
0.000000
0.000000
0.000000
0.000170
0.000000
0.000000
0.000000
0.000000
0.000000
0.000000
0.000000
0.000000
0.000000
0.000000
0.000000
0.000000
0.000163
0.000325
0.000488
0.000000
0.000325
0.000651
0.000000
0.000488
0.000000
0.000000
0.000055
0.000110
0.000165
0.000000
0.000218
0.000435
0.000000
0.000380
0.000000
0.000000
0.000110
0.000220
0.000000
0.000273
0.000000
0.000000
0.000165
0.000000
0.000000
0.000000
0.000165
0.000220
0.000165
0.000000
0.000000
-0.000079
-0.000268
-0.000567
0.000000
-0.000323
-0.000756
0.000000
-0.000567
0.000000
-0.000121
0.000029
0.000069
0.000000
0.000055
-0.000039
-0.000242
0.000231
-0.000106
0.000408
-0.000162
-0.000026
0.000000
0.000191
0.000083
0.000544
-0.000121
0.000000
0.000408
0.000000
0.000000
0.000000
0.000000
0.000000
0.000000
0.000000
0.000000
0.000000
0.000000
0.000000
0.000000
0.000000
0.000000
0.000000
0.000000
0.000089
0.000081
0.000073
0.000065
0.000032
0.000024
0.000016
-0.000024
-0.000032
-0.000081
0.000118
0.000102
0.000086
0.000005
-0.000011
-0.000108
0.000089
0.000065
-0.000081
0.000000
0.000000
-0.000252
-0.000336
-0.000252
0.000000
0.000000
-0.000126
-0.000084
0.000125
0.000000
-0.000000
0.000167
0.000000
0.000125
0.000000
0.000000
-0.000256
-0.000343
-0.000263
0.000000
-0.000130
-0.000092
0.000000
-0.000004
0.000000
0.000000
-0.000259
-0.000351
0.000000
-0.000134
0.000000
0.000000
-0.000263
0.000000
0.000000
0.000000
0.000000
0.000000
0.000000
0.000000
0.000000
0.000000
0.000000
0.000000
0.000000
0.000000
0.000000
0.000000
0.000000
0.000000
0.000000
0.000055
0.000110
0.000165
0.000000
0.000055
0.000110
0.000000
0.000055
0.000000
0.000000
0.000110
0.000220
0.000000
0.000110
0.000000
0.000000
0.000165
0.000000
0.000000
0.000000
-0.000010
-0.000013
-0.000010
0.000000
-0.000002
-0.000014
-0.000019
-0.000018
-0.000001
-0.000015
-0.000023
0.000002
-0.000014
0.000009